!                                                                                                                                       
! Generated by Advanced Design System(ADS)'s Touchstone combiner
! Individual SnP file names along with mapping information is saved at the end of this file in XML format
! Created 2013-05-20 11:18:29
# GHz S MA R 50
! 4 Port Network Data
! freq                         MagS11                        AngS11                        MagS12                        AngS12                        MagS13                        AngS13                        MagS14                        AngS14                        
!
!                              MagS21                        AngS21                        MagS22                        AngS22                        MagS23                        AngS23                        MagS24                        AngS24                        
!
!                              MagS31                        AngS31                        MagS32                        AngS32                        MagS33                        AngS33                        MagS34                        AngS34                        
!
!                              MagS41                        AngS41                        MagS42                        AngS42                        MagS43                        AngS43                        MagS44                        AngS44                        
!
!!    
1                             0.04419900000000001           -50.172                       0.56398                       41.93600000000001             0.82177                       131.92                        0.06440600000000002           42.92999999999999             
                              0.56398                       41.93600000000001             0.044199                      -50.172                       0                             0                             0                             0                             
                              0.82177                       131.92                        0                             0                             0.044199                      -50.172                       0                             0                             
                              0.06440600000000002           42.92999999999999             0                             0                             0                             0                             0.044199                      -50.172                       

1.05                          0.042687                      -54.659                       0.5530000000000001            26.892                        0.82932                       116.96                        0.063514                      23.203                        
                              0.5530000000000001            26.892                        0.042687                      -54.659                       0                             0                             0                             0                             
                              0.82932                       116.96                        0                             0                             0.042687                      -54.659                       0                             0                             
                              0.063514                      23.203                        0                             0                             0                             0                             0.042687                      -54.659                       

1.1                           0.04190000000000001           -59.862                       0.54428                       11.878                        0.8352300000000003            102.02                        0.061744                      4.0672                        
                              0.54428                       11.878                        0.04190000000000001           -59.862                       0                             0                             0                             0                             
                              0.8352300000000003            102.02                        0                             0                             0.04190000000000001           -59.862                       0                             0                             
                              0.061744                      4.0672                        0                             0                             0                             0                             0.04190000000000001           -59.862                       

1.15                          0.041447                      -66.544                       0.5377999999999998            -3.110100000000001            0.8396100000000002            87.08                         0.059201                      -14.485                       
                              0.5377999999999998            -3.110100000000001            0.041447                      -66.544                       0                             0                             0                             0                             
                              0.8396100000000002            87.08                         0                             0                             0.041447                      -66.544                       0                             0                             
                              0.059201                      -14.485                       0                             0                             0                             0                             0.041447                      -66.544                       

1.2                           0.040828                      -75.072                       0.5335499999999999            -18.082                       0.84255                       72.13200000000001             0.056013                      -32.43599999999999            
                              0.5335499999999999            -18.082                       0.040828                      -75.072                       0                             0                             0                             0                             
                              0.84255                       72.13200000000001             0                             0                             0.040828                      -75.072                       0                             0                             
                              0.056013                      -32.43599999999999            0                             0                             0                             0                             0.040828                      -75.072                       

1.25                          0.039642                      -85.50000000000001            0.5314800000000001            -33.051                       0.8441300000000001            57.16499999999999             0.05233                       -49.74600000000001            
                              0.5314800000000001            -33.051                       0.039642                      -85.5                         0                             0                             0                             0                             
                              0.8441300000000001            57.16499999999999             0                             0                             0.039642                      -85.5                         0                             0                             
                              0.05233                       -49.74600000000001            0                             0                             0                             0                             0.039642                      -85.5                         

1.3                           0.037688                      -97.75199999999998            0.53151                       -48.02799999999999            0.8444299999999999            42.171                        0.048322                      -66.351                       
                              0.53151                       -48.02799999999999            0.037688                      -97.75199999999998            0                             0                             0                             0                             
                              0.8444299999999999            42.171                        0                             0                             0.037688                      -97.75199999999998            0                             0                             
                              0.048322                      -66.351                       0                             0                             0                             0                             0.037688                      -97.75199999999998            

1.35                          0.034988                      -111.76                       0.5334999999999999            -63.027                       0.8435                        27.145                        0.044178                      -82.17400000000001            
                              0.5334999999999999            -63.027                       0.034988                      -111.76                       0                             0                             0                             0                             
                              0.8435                        27.145                        0                             0                             0.034988                      -111.76                       0                             0                             
                              0.044178                      -82.17400000000001            0                             0                             0                             0                             0.034988                      -111.76                       

1.4                           0.031752                      -127.53                       0.53731                       -78.06                        0.84139                       12.081                        0.04009800000000002           -97.14100000000001            
                              0.53731                       -78.06                        0.031752                      -127.53                       0                             0                             0                             0                             
                              0.84139                       12.081                        0                             0                             0.031752                      -127.53                       0                             0                             
                              0.04009800000000002           -97.14100000000001            0                             0                             0                             0                             0.031752                      -127.53                       

1.45                          0.02832000000000001           -145.06                       0.54275                       -93.136                       0.8381799999999998            -3.026600000000001            0.036282                      -111.23                       
                              0.54275                       -93.136                       0.02832000000000001           -145.06                       0                             0                             0                             0                             
                              0.8381799999999998            -3.026600000000001            0                             0                             0.02832000000000001           -145.06                       0                             0                             
                              0.036282                      -111.23                       0                             0                             0                             0                             0.02832000000000001           -145.06                       

1.5                           0.02509                       -164.29                       0.54962                       -108.26                       0.8339099999999999            -18.18                        0.032906                      -124.54                       
                              0.54962                       -108.26                       0.02509                       -164.29                       0                             0                             0                             0                             
                              0.8339099999999999            -18.18                        0                             0                             0.02509                       -164.29                       0                             0                             
                              0.032906                      -124.54                       0                             0                             0                             0                             0.02509                       -164.29                       

1.55                          0.02241                       175.24                        0.55773                       -123.44                       0.82868                       -33.381                       0.03007900000000001           -137.35                       
                              0.55773                       -123.44                       0.02241                       175.24                        0                             0                             0                             0                             
                              0.82868                       -33.381                       0                             0                             0.02241                       175.24                        0                             0                             
                              0.03007900000000001           -137.35                       0                             0                             0                             0                             0.02241                       175.24                        

1.6                           0.020463                      154.54                        0.5668800000000002            -138.67                       0.82256                       -48.63099999999999            0.027811                      -150.2                        
                              0.5668800000000002            -138.67                       0.020463                      154.54                        0                             0                             0                             0                             
                              0.82256                       -48.63099999999999            0                             0                             0.020463                      154.54                        0                             0                             
                              0.027811                      -150.2                        0                             0                             0                             0                             0.020463                      154.54                        

1.65                          0.019199                      135.06                        0.57689                       -153.96                       0.81565                       -63.93299999999999            0.025987                      -163.77                       
                              0.57689                       -153.96                       0.019199                      135.06                        0                             0                             0                             0                             
                              0.81565                       -63.93299999999999            0                             0                             0.019199                      135.06                        0                             0                             
                              0.025987                      -163.77                       0                             0                             0                             0                             0.019199                      135.06                        

1.7                           0.018398                      118.16                        0.58755                       -169.31                       0.8080500000000001            -79.286                       0.024404                      -178.77                       
                              0.58755                       -169.31                       0.018398                      118.16                        0                             0                             0                             0                             
                              0.8080500000000001            -79.286                       0                             0                             0.018398                      118.16                        0                             0                             
                              0.024404                      -178.77                       0                             0                             0                             0                             0.018398                      118.16                        

1.75                          0.017825                      104.67                        0.59868                       175.28                        0.79988                       -94.691                       0.022829                      164.14                        
                              0.59868                       175.28                        0.017825                      104.67                        0                             0                             0                             0                             
                              0.79988                       -94.691                       0                             0                             0.017825                      104.67                        0                             0                             
                              0.022829                      164.14                        0                             0                             0                             0                             0.017825                      104.67                        

1.8                           0.017355                      94.91899999999997             0.61008                       159.82                        0.7912499999999999            -110.15                       0.021091                      144.29                        
                              0.61008                       159.82                        0.017355                      94.919                        0                             0                             0                             0                             
                              0.7912499999999999            -110.15                       0                             0                             0.017355                      94.919                        0                             0                             
                              0.021091                      144.29                        0                             0                             0                             0                             0.017355                      94.919                        

1.85                          0.017016                      88.89400000000001             0.62159                       144.31                        0.78229                       -125.66                       0.019161                      120.83                        
                              0.62159                       144.31                        0.017016                      88.89400000000001             0                             0                             0                             0                             
                              0.78229                       -125.66                       0                             0                             0.017016                      88.89400000000001             0                             0                             
                              0.019161                      120.83                        0                             0                             0                             0                             0.017016                      88.89400000000001             

1.9                           0.016957                      86.29700000000001             0.63302                       128.74                        0.7730900000000001            -141.22                       0.017265                      92.56399999999999             
                              0.63302                       128.74                        0.016957                      86.297                        0                             0                             0                             0                             
                              0.7730900000000001            -141.22                       0                             0                             0.016957                      86.297                        0                             0                             
                              0.017265                      92.56399999999999             0                             0                             0                             0                             0.016957                      86.297                        

1.95                          0.017412                      86.47                         0.64422                       113.13                        0.76378                       -156.83                       0.016                         58.402                        
                              0.64422                       113.13                        0.017412                      86.46999999999999             0                             0                             0                             0                             
                              0.76378                       -156.83                       0                             0                             0.017412                      86.46999999999999             0                             0                             
                              0.016                         58.402                        0                             0                             0                             0                             0.017412                      86.46999999999999             

2                             0.018648                      88.31899999999997             0.6550699999999998            97.486                        0.75444                       -172.5                        0.01628                       19.571                        
                              0.6550699999999998            97.486                        0.018648                      88.31899999999999             0                             0                             0                             0                             
                              0.75444                       -172.5                        0                             0                             0.018648                      88.31899999999999             0                             0                             
                              0.01628                       19.571                        0                             0                             0                             0                             0.018648                      88.31899999999999             

2.05                          0.020918                      90.42699999999999             0.6654600000000001            81.80099999999999             0.7451599999999999            171.79                        0.01873                       -19.028                       
                              0.6654600000000001            81.80099999999999             0.020918                      90.42699999999999             0                             0                             0                             0                             
                              0.7451599999999999            171.79                        0                             0                             0.020918                      90.42699999999999             0                             0                             
                              0.01873                       -19.028                       0                             0                             0                             0                             0.020918                      90.42699999999999             

2.1                           0.024385                      91.45699999999999             0.67531                       66.083                        0.7359900000000001            156.03                        0.023132                      -53.423                       
                              0.67531                       66.083                        0.024385                      91.45699999999999             0                             0                             0                             0                             
                              0.7359900000000001            156.03                        0                             0                             0.024385                      91.45699999999999             0                             0                             
                              0.023132                      -53.423                       0                             0                             0                             0                             0.024385                      91.45699999999999             

2.15                          0.029077                      90.56200000000001             0.68454                       50.33400000000001             0.72702                       140.24                        0.028817                      -83.47100000000002            
                              0.68454                       50.33400000000001             0.029077                      90.56200000000001             0                             0                             0                             0                             
                              0.72702                       140.24                        0                             0                             0.029077                      90.56200000000001             0                             0                             
                              0.028817                      -83.47100000000002            0                             0                             0                             0                             0.029077                      90.56200000000001             

2.2                           0.034851                      87.48099999999998             0.69308                       34.555                        0.71832                       124.42                        0.035158                      -110.5                        
                              0.69308                       34.555                        0.034851                      87.48099999999998             0                             0                             0                             0                             
                              0.71832                       124.42                        0                             0                             0.034851                      87.48099999999998             0                             0                             
                              0.035158                      -110.5                        0                             0                             0                             0                             0.034851                      87.48099999999998             

2.25                          0.041411                      82.37000000000001             0.70085                       18.748                        0.71001                       108.59                        0.041663                      -135.65                       
                              0.70085                       18.748                        0.041411                      82.37000000000001             0                             0                             0                             0                             
                              0.71001                       108.59                        0                             0                             0.041411                      82.37000000000001             0                             0                             
                              0.041663                      -135.65                       0                             0                             0                             0                             0.041411                      82.37000000000001             

2.3                           0.048328                      75.566                        0.70778                       2.9153                        0.70225                       92.76600000000002             0.047939                      -159.65                       